-- Generated [
-- Format      : ECLIPSE keywords (grid geometry and properties) (ASCII)
-- Exported by : Petrel 2017.4 Schlumberger
-- User name   : Aqnan Matthew
-- Date        : Tuesday, April 13 2021 22:33:26
-- Project     : EggModel.pet
-- Grid        : EGG_MODEL_ECL.EGRID
-- Generated ]

SPECGRID                               -- Generated : Petrel
  60 60 7 1 F /

COORDSYS                               -- Generated : Petrel
  1 7 /

COORD                                  -- Generated : Petrel
  0 0 1850 0 0 1937.5 25 0 1850 25 0 1937.5 50 0 1850 50 0 1937.5 75 0 1850 75 0 1937.5 100 0 1850 100 0 1937.5 125 0 1850 125 0
  1937.5 150 0 1850 150 0 1937.5 175 0 1850 175 0 1937.5 200 0 1850 200 0 1937.5 225 0 1850 225 0 1937.5 250 0 1850 250 0 1937.5 275
  0 1850 275 0 1937.5 300 0 1850 300 0 1937.5 325 0 1850 325 0 1937.5 350 0 1850 350 0 1937.5 375 0 1850 375 0 1937.5 400 0 1850 400
  0 1937.5 425 0 1850 425 0 1937.5 450 0 1850 450 0 1937.5 475 0 1850 475 0 1937.5 500 0 1850 500 0 1937.5 525 0 1850 525 0 1937.5
  550 0 1850 550 0 1937.5 575 0 1850 575 0 1937.5 600 0 1850 600 0 1937.5 625 0 1850 625 0 1937.5 650 0 1850 650 0 1937.5 675 0 1850
  675 0 1937.5 700 0 1850 700 0 1937.5 725 0 1850 725 0 1937.5 750 0 1850 750 0 1937.5 775 0 1850 775 0 1937.5 800 0 1850 800 0
  1937.5 825 0 1850 825 0 1937.5 850 0 1850 850 0 1937.5 875 0 1850 875 0 1937.5 900 0 1850 900 0 1937.5 925 0 1850 925 0 1937.5 950
  0 1850 950 0 1937.5 975 0 1850 975 0 1937.5 1000 0 1850 1000 0 1937.5 1025 0 1850 1025 0 1937.5 1050 0 1850 1050 0 1937.5 1075 0
  1850 1075 0 1937.5 1100 0 1850 1100 0 1937.5 1125 0 1850 1125 0 1937.5 1150 0 1850 1150 0 1937.5 1175 0 1850 1175 0 1937.5 1200 0
  1850 1200 0 1937.5 1225 0 1850 1225 0 1937.5 1250 0 1850 1250 0 1937.5 1275 0 1850 1275 0 1937.5 1300 0 1850 1300 0 1937.5 1325 0
  1850 1325 0 1937.5 1350 0 1850 1350 0 1937.5 1375 0 1850 1375 0 1937.5 1400 0 1850 1400 0 1937.5 1425 0 1850 1425 0 1937.5 1450 0
  1850 1450 0 1937.5 1475 0 1850 1475 0 1937.5 1500 0 1850 1500 0 1937.5 0 25 1850 0 25 1937.5 25 25 1850 25 25 1937.5 50 25 1850 50
  25 1937.5 75 25 1850 75 25 1937.5 100 25 1850 100 25 1937.5 125 25 1850 125 25 1937.5 150 25 1850 150 25 1937.5 175 25 1850 175 25
  1937.5 200 25 1850 200 25 1937.5 225 25 1850 225 25 1937.5 250 25 1850 250 25 1937.5 275 25 1850 275 25 1937.5 300 25 1850 300 25
  1937.5 325 25 1850 325 25 1937.5 350 25 1850 350 25 1937.5 375 25 1850 375 25 1937.5 400 25 1850 400 25 1937.5 425 25 1850 425 25
  1937.5 450 25 1850 450 25 1937.5 475 25 1850 475 25 1937.5 500 25 1850 500 25 1937.5 525 25 1850 525 25 1937.5 550 25 1850 550 25
  1937.5 575 25 1850 575 25 1937.5 600 25 1850 600 25 1937.5 625 25 1850 625 25 1937.5 650 25 1850 650 25 1937.5 675 25 1850 675 25
  1937.5 700 25 1850 700 25 1937.5 725 25 1850 725 25 1937.5 750 25 1850 750 25 1937.5 775 25 1850 775 25 1937.5 800 25 1850 800 25
  1937.5 825 25 1850 825 25 1937.5 850 25 1850 850 25 1937.5 875 25 1850 875 25 1937.5 900 25 1850 900 25 1937.5 925 25 1850 925 25
  1937.5 950 25 1850 950 25 1937.5 975 25 1850 975 25 1937.5 1000 25 1850 1000 25 1937.5 1025 25 1850 1025 25 1937.5 1050 25 1850
  1050 25 1937.5 1075 25 1850 1075 25 1937.5 1100 25 1850 1100 25 1937.5 1125 25 1850 1125 25 1937.5 1150 25 1850 1150 25 1937.5
  1175 25 1850 1175 25 1937.5 1200 25 1850 1200 25 1937.5 1225 25 1850 1225 25 1937.5 1250 25 1850 1250 25 1937.5 1275 25 1850 1275
  25 1937.5 1300 25 1850 1300 25 1937.5 1325 25 1850 1325 25 1937.5 1350 25 1850 1350 25 1937.5 1375 25 1850 1375 25 1937.5 1400 25
  1850 1400 25 1937.5 1425 25 1850 1425 25 1937.5 1450 25 1850 1450 25 1937.5 1475 25 1850 1475 25 1937.5 1500 25 1850 1500 25
  1937.5 0 50 1850 0 50 1937.5 25 50 1850 25 50 1937.5 50 50 1850 50 50 1937.5 75 50 1850 75 50 1937.5 100 50 1850 100 50 1937.5 125
  50 1850 125 50 1937.5 150 50 1850 150 50 1937.5 175 50 1850 175 50 1937.5 200 50 1850 200 50 1937.5 225 50 1850 225 50 1937.5 250
  50 1850 250 50 1937.5 275 50 1850 275 50 1937.5 300 50 1850 300 50 1937.5 325 50 1850 325 50 1937.5 350 50 1850 350 50 1937.5 375
  50 1850 375 50 1937.5 400 50 1850 400 50 1937.5 425 50 1850 425 50 1937.5 450 50 1850 450 50 1937.5 475 50 1850 475 50 1937.5 500
  50 1850 500 50 1937.5 525 50 1850 525 50 1937.5 550 50 1850 550 50 1937.5 575 50 1850 575 50 1937.5 600 50 1850 600 50 1937.5 625
  50 1850 625 50 1937.5 650 50 1850 650 50 1937.5 675 50 1850 675 50 1937.5 700 50 1850 700 50 1937.5 725 50 1850 725 50 1937.5 750
  50 1850 750 50 1937.5 775 50 1850 775 50 1937.5 800 50 1850 800 50 1937.5 825 50 1850 825 50 1937.5 850 50 1850 850 50 1937.5 875
  50 1850 875 50 1937.5 900 50 1850 900 50 1937.5 925 50 1850 925 50 1937.5 950 50 1850 950 50 1937.5 975 50 1850 975 50 1937.5 1000
  50 1850 1000 50 1937.5 1025 50 1850 1025 50 1937.5 1050 50 1850 1050 50 1937.5 1075 50 1850 1075 50 1937.5 1100 50 1850 1100 50
  1937.5 1125 50 1850 1125 50 1937.5 1150 50 1850 1150 50 1937.5 1175 50 1850 1175 50 1937.5 1200 50 1850 1200 50 1937.5 1225 50
  1850 1225 50 1937.5 1250 50 1850 1250 50 1937.5 1275 50 1850 1275 50 1937.5 1300 50 1850 1300 50 1937.5 1325 50 1850 1325 50
  1937.5 1350 50 1850 1350 50 1937.5 1375 50 1850 1375 50 1937.5 1400 50 1850 1400 50 1937.5 1425 50 1850 1425 50 1937.5 1450 50
  1850 1450 50 1937.5 1475 50 1850 1475 50 1937.5 1500 50 1850 1500 50 1937.5 0 75 1850 0 75 1937.5 25 75 1850 25 75 1937.5 50 75
  1850 50 75 1937.5 75 75 1850 75 75 1937.5 100 75 1850 100 75 1937.5 125 75 1850 125 75 1937.5 150 75 1850 150 75 1937.5 175 75
  1850 175 75 1937.5 200 75 1850 200 75 1937.5 225 75 1850 225 75 1937.5 250 75 1850 250 75 1937.5 275 75 1850 275 75 1937.5 300 75
  1850 300 75 1937.5 325 75 1850 325 75 1937.5 350 75 1850 350 75 1937.5 375 75 1850 375 75 1937.5 400 75 1850 400 75 1937.5 425 75
  1850 425 75 1937.5 450 75 1850 450 75 1937.5 475 75 1850 475 75 1937.5 500 75 1850 500 75 1937.5 525 75 1850 525 75 1937.5 550 75
  1850 550 75 1937.5 575 75 1850 575 75 1937.5 600 75 1850 600 75 1937.5 625 75 1850 625 75 1937.5 650 75 1850 650 75 1937.5 675 75
  1850 675 75 1937.5 700 75 1850 700 75 1937.5 725 75 1850 725 75 1937.5 750 75 1850 750 75 1937.5 775 75 1850 775 75 1937.5 800 75
  1850 800 75 1937.5 825 75 1850 825 75 1937.5 850 75 1850 850 75 1937.5 875 75 1850 875 75 1937.5 900 75 1850 900 75 1937.5 925 75
  1850 925 75 1937.5 950 75 1850 950 75 1937.5 975 75 1850 975 75 1937.5 1000 75 1850 1000 75 1937.5 1025 75 1850 1025 75 1937.5
  1050 75 1850 1050 75 1937.5 1075 75 1850 1075 75 1937.5 1100 75 1850 1100 75 1937.5 1125 75 1850 1125 75 1937.5 1150 75 1850 1150
  75 1937.5 1175 75 1850 1175 75 1937.5 1200 75 1850 1200 75 1937.5 1225 75 1850 1225 75 1937.5 1250 75 1850 1250 75 1937.5 1275 75
  1850 1275 75 1937.5 1300 75 1850 1300 75 1937.5 1325 75 1850 1325 75 1937.5 1350 75 1850 1350 75 1937.5 1375 75 1850 1375 75
  1937.5 1400 75 1850 1400 75 1937.5 1425 75 1850 1425 75 1937.5 1450 75 1850 1450 75 1937.5 1475 75 1850 1475 75 1937.5 1500 75
  1850 1500 75 1937.5 0 100 1850 0 100 1937.5 25 100 1850 25 100 1937.5 50 100 1850 50 100 1937.5 75 100 1850 75 100 1937.5 100 100
  1850 100 100 1937.5 125 100 1850 125 100 1937.5 150 100 1850 150 100 1937.5 175 100 1850 175 100 1937.5 200 100 1850 200 100
  1937.5 225 100 1850 225 100 1937.5 250 100 1850 250 100 1937.5 275 100 1850 275 100 1937.5 300 100 1850 300 100 1937.5 325 100
  1850 325 100 1937.5 350 100 1850 350 100 1937.5 375 100 1850 375 100 1937.5 400 100 1850 400 100 1937.5 425 100 1850 425 100
  1937.5 450 100 1850 450 100 1937.5 475 100 1850 475 100 1937.5 500 100 1850 500 100 1937.5 525 100 1850 525 100 1937.5 550 100
  1850 550 100 1937.5 575 100 1850 575 100 1937.5 600 100 1850 600 100 1937.5 625 100 1850 625 100 1937.5 650 100 1850 650 100
  1937.5 675 100 1850 675 100 1937.5 700 100 1850 700 100 1937.5 725 100 1850 725 100 1937.5 750 100 1850 750 100 1937.5 775 100
  1850 775 100 1937.5 800 100 1850 800 100 1937.5 825 100 1850 825 100 1937.5 850 100 1850 850 100 1937.5 875 100 1850 875 100
  1937.5 900 100 1850 900 100 1937.5 925 100 1850 925 100 1937.5 950 100 1850 950 100 1937.5 975 100 1850 975 100 1937.5 1000 100
  1850 1000 100 1937.5 1025 100 1850 1025 100 1937.5 1050 100 1850 1050 100 1937.5 1075 100 1850 1075 100 1937.5 1100 100 1850 1100
  100 1937.5 1125 100 1850 1125 100 1937.5 1150 100 1850 1150 100 1937.5 1175 100 1850 1175 100 1937.5 1200 100 1850 1200 100 1937.5
  1225 100 1850 1225 100 1937.5 1250 100 1850 1250 100 1937.5 1275 100 1850 1275 100 1937.5 1300 100 1850 1300 100 1937.5 1325 100
  1850 1325 100 1937.5 1350 100 1850 1350 100 1937.5 1375 100 1850 1375 100 1937.5 1400 100 1850 1400 100 1937.5 1425 100 1850 1425
  100 1937.5 1450 100 1850 1450 100 1937.5 1475 100 1850 1475 100 1937.5 1500 100 1850 1500 100 1937.5 0 125 1850 0 125 1937.5 25
  125 1850 25 125 1937.5 50 125 1850 50 125 1937.5 75 125 1850 75 125 1937.5 100 125 1850 100 125 1937.5 125 125 1850 125 125 1937.5
  150 125 1850 150 125 1937.5 175 125 1850 175 125 1937.5 200 125 1850 200 125 1937.5 225 125 1850 225 125 1937.5 250 125 1850 250
  125 1937.5 275 125 1850 275 125 1937.5 300 125 1850 300 125 1937.5 325 125 1850 325 125 1937.5 350 125 1850 350 125 1937.5 375 125
  1850 375 125 1937.5 400 125 1850 400 125 1937.5 425 125 1850 425 125 1937.5 450 125 1850 450 125 1937.5 475 125 1850 475 125
  1937.5 500 125 1850 500 125 1937.5 525 125 1850 525 125 1937.5 550 125 1850 550 125 1937.5 575 125 1850 575 125 1937.5 600 125
  1850 600 125 1937.5 625 125 1850 625 125 1937.5 650 125 1850 650 125 1937.5 675 125 1850 675 125 1937.5 700 125 1850 700 125
  1937.5 725 125 1850 725 125 1937.5 750 125 1850 750 125 1937.5 775 125 1850 775 125 1937.5 800 125 1850 800 125 1937.5 825 125
  1850 825 125 1937.5 850 125 1850 850 125 1937.5 875 125 1850 875 125 1937.5 900 125 1850 900 125 1937.5 925 125 1850 925 125
  1937.5 950 125 1850 950 125 1937.5 975 125 1850 975 125 1937.5 1000 125 1850 1000 125 1937.5 1025 125 1850 1025 125 1937.5 1050
  125 1850 1050 125 1937.5 1075 125 1850 1075 125 1937.5 1100 125 1850 1100 125 1937.5 1125 125 1850 1125 125 1937.5 1150 125 1850
  1150 125 1937.5 1175 125 1850 1175 125 1937.5 1200 125 1850 1200 125 1937.5 1225 125 1850 1225 125 1937.5 1250 125 1850 1250 125
  1937.5 1275 125 1850 1275 125 1937.5 1300 125 1850 1300 125 1937.5 1325 125 1850 1325 125 1937.5 1350 125 1850 1350 125 1937.5
  1375 125 1850 1375 125 1937.5 1400 125 1850 1400 125 1937.5 1425 125 1850 1425 125 1937.5 1450 125 1850 1450 125 1937.5 1475 125
  1850 1475 125 1937.5 1500 125 1850 1500 125 1937.5 0 150 1850 0 150 1937.5 25 150 1850 25 150 1937.5 50 150 1850 50 150 1937.5 75
  150 1850 75 150 1937.5 100 150 1850 100 150 1937.5 125 150 1850 125 150 1937.5 150 150 1850 150 150 1937.5 175 150 1850 175 150
  1937.5 200 150 1850 200 150 1937.5 225 150 1850 225 150 1937.5 250 150 1850 250 150 1937.5 275 150 1850 275 150 1937.5 300 150
  1850 300 150 1937.5 325 150 1850 325 150 1937.5 350 150 1850 350 150 1937.5 375 150 1850 375 150 1937.5 400 150 1850 400 150
  1937.5 425 150 1850 425 150 1937.5 450 150 1850 450 150 1937.5 475 150 1850 475 150 1937.5 500 150 1850 500 150 1937.5 525 150
  1850 525 150 1937.5 550 150 1850 550 150 1937.5 575 150 1850 575 150 1937.5 600 150 1850 600 150 1937.5 625 150 1850 625 150
  1937.5 650 150 1850 650 150 1937.5 675 150 1850 675 150 1937.5 700 150 1850 700 150 1937.5 725 150 1850 725 150 1937.5 750 150
  1850 750 150 1937.5 775 150 1850 775 150 1937.5 800 150 1850 800 150 1937.5 825 150 1850 825 150 1937.5 850 150 1850 850 150
  1937.5 875 150 1850 875 150 1937.5 900 150 1850 900 150 1937.5 925 150 1850 925 150 1937.5 950 150 1850 950 150 1937.5 975 150
  1850 975 150 1937.5 1000 150 1850 1000 150 1937.5 1025 150 1850 1025 150 1937.5 1050 150 1850 1050 150 1937.5 1075 150 1850 1075
  150 1937.5 1100 150 1850 1100 150 1937.5 1125 150 1850 1125 150 1937.5 1150 150 1850 1150 150 1937.5 1175 150 1850 1175 150 1937.5
  1200 150 1850 1200 150 1937.5 1225 150 1850 1225 150 1937.5 1250 150 1850 1250 150 1937.5 1275 150 1850 1275 150 1937.5 1300 150
  1850 1300 150 1937.5 1325 150 1850 1325 150 1937.5 1350 150 1850 1350 150 1937.5 1375 150 1850 1375 150 1937.5 1400 150 1850 1400
  150 1937.5 1425 150 1850 1425 150 1937.5 1450 150 1850 1450 150 1937.5 1475 150 1850 1475 150 1937.5 1500 150 1850 1500 150 1937.5
  0 175 1850 0 175 1937.5 25 175 1850 25 175 1937.5 50 175 1850 50 175 1937.5 75 175 1850 75 175 1937.5 100 175 1850 100 175 1937.5
  125 175 1850 125 175 1937.5 150 175 1850 150 175 1937.5 175 175 1850 175 175 1937.5 200 175 1850 200 175 1937.5 225 175 1850 225
  175 1937.5 250 175 1850 250 175 1937.5 275 175 1850 275 175 1937.5 300 175 1850 300 175 1937.5 325 175 1850 325 175 1937.5 350 175
  1850 350 175 1937.5 375 175 1850 375 175 1937.5 400 175 1850 400 175 1937.5 425 175 1850 425 175 1937.5 450 175 1850 450 175
  1937.5 475 175 1850 475 175 1937.5 500 175 1850 500 175 1937.5 525 175 1850 525 175 1937.5 550 175 1850 550 175 1937.5 575 175
  1850 575 175 1937.5 600 175 1850 600 175 1937.5 625 175 1850 625 175 1937.5 650 175 1850 650 175 1937.5 675 175 1850 675 175
  1937.5 700 175 1850 700 175 1937.5 725 175 1850 725 175 1937.5 750 175 1850 750 175 1937.5 775 175 1850 775 175 1937.5 800 175
  1850 800 175 1937.5 825 175 1850 825 175 1937.5 850 175 1850 850 175 1937.5 875 175 1850 875 175 1937.5 900 175 1850 900 175
  1937.5 925 175 1850 925 175 1937.5 950 175 1850 950 175 1937.5 975 175 1850 975 175 1937.5 1000 175 1850 1000 175 1937.5 1025 175
  1850 1025 175 1937.5 1050 175 1850 1050 175 1937.5 1075 175 1850 1075 175 1937.5 1100 175 1850 1100 175 1937.5 1125 175 1850 1125
  175 1937.5 1150 175 1850 1150 175 1937.5 1175 175 1850 1175 175 1937.5 1200 175 1850 1200 175 1937.5 1225 175 1850 1225 175 1937.5
  1250 175 1850 1250 175 1937.5 1275 175 1850 1275 175 1937.5 1300 175 1850 1300 175 1937.5 1325 175 1850 1325 175 1937.5 1350 175
  1850 1350 175 1937.5 1375 175 1850 1375 175 1937.5 1400 175 1850 1400 175 1937.5 1425 175 1850 1425 175 1937.5 1450 175 1850 1450
  175 1937.5 1475 175 1850 1475 175 1937.5 1500 175 1850 1500 175 1937.5 0 200 1850 0 200 1937.5 25 200 1850 25 200 1937.5 50 200
  1850 50 200 1937.5 75 200 1850 75 200 1937.5 100 200 1850 100 200 1937.5 125 200 1850 125 200 1937.5 150 200 1850 150 200 1937.5
  175 200 1850 175 200 1937.5 200 200 1850 200 200 1937.5 225 200 1850 225 200 1937.5 250 200 1850 250 200 1937.5 275 200 1850 275
  200 1937.5 300 200 1850 300 200 1937.5 325 200 1850 325 200 1937.5 350 200 1850 350 200 1937.5 375 200 1850 375 200 1937.5 400 200
  1850 400 200 1937.5 425 200 1850 425 200 1937.5 450 200 1850 450 200 1937.5 475 200 1850 475 200 1937.5 500 200 1850 500 200
  1937.5 525 200 1850 525 200 1937.5 550 200 1850 550 200 1937.5 575 200 1850 575 200 1937.5 600 200 1850 600 200 1937.5 625 200
  1850 625 200 1937.5 650 200 1850 650 200 1937.5 675 200 1850 675 200 1937.5 700 200 1850 700 200 1937.5 725 200 1850 725 200
  1937.5 750 200 1850 750 200 1937.5 775 200 1850 775 200 1937.5 800 200 1850 800 200 1937.5 825 200 1850 825 200 1937.5 850 200
  1850 850 200 1937.5 875 200 1850 875 200 1937.5 900 200 1850 900 200 1937.5 925 200 1850 925 200 1937.5 950 200 1850 950 200
  1937.5 975 200 1850 975 200 1937.5 1000 200 1850 1000 200 1937.5 1025 200 1850 1025 200 1937.5 1050 200 1850 1050 200 1937.5 1075
  200 1850 1075 200 1937.5 1100 200 1850 1100 200 1937.5 1125 200 1850 1125 200 1937.5 1150 200 1850 1150 200 1937.5 1175 200 1850
  1175 200 1937.5 1200 200 1850 1200 200 1937.5 1225 200 1850 1225 200 1937.5 1250 200 1850 1250 200 1937.5 1275 200 1850 1275 200
  1937.5 1300 200 1850 1300 200 1937.5 1325 200 1850 1325 200 1937.5 1350 200 1850 1350 200 1937.5 1375 200 1850 1375 200 1937.5
  1400 200 1850 1400 200 1937.5 1425 200 1850 1425 200 1937.5 1450 200 1850 1450 200 1937.5 1475 200 1850 1475 200 1937.5 1500 200
  1850 1500 200 1937.5 0 225 1850 0 225 1937.5 25 225 1850 25 225 1937.5 50 225 1850 50 225 1937.5 75 225 1850 75 225 1937.5 100 225
  1850 100 225 1937.5 125 225 1850 125 225 1937.5 150 225 1850 150 225 1937.5 175 225 1850 175 225 1937.5 200 225 1850 200 225
  1937.5 225 225 1850 225 225 1937.5 250 225 1850 250 225 1937.5 275 225 1850 275 225 1937.5 300 225 1850 300 225 1937.5 325 225
  1850 325 225 1937.5 350 225 1850 350 225 1937.5 375 225 1850 375 225 1937.5 400 225 1850 400 225 1937.5 425 225 1850 425 225
  1937.5 450 225 1850 450 225 1937.5 475 225 1850 475 225 1937.5 500 225 1850 500 225 1937.5 525 225 1850 525 225 1937.5 550 225
  1850 550 225 1937.5 575 225 1850 575 225 1937.5 600 225 1850 600 225 1937.5 625 225 1850 625 225 1937.5 650 225 1850 650 225
  1937.5 675 225 1850 675 225 1937.5 700 225 1850 700 225 1937.5 725 225 1850 725 225 1937.5 750 225 1850 750 225 1937.5 775 225
  1850 775 225 1937.5 800 225 1850 800 225 1937.5 825 225 1850 825 225 1937.5 850 225 1850 850 225 1937.5 875 225 1850 875 225
  1937.5 900 225 1850 900 225 1937.5 925 225 1850 925 225 1937.5 950 225 1850 950 225 1937.5 975 225 1850 975 225 1937.5 1000 225
  1850 1000 225 1937.5 1025 225 1850 1025 225 1937.5 1050 225 1850 1050 225 1937.5 1075 225 1850 1075 225 1937.5 1100 225 1850 1100
  225 1937.5 1125 225 1850 1125 225 1937.5 1150 225 1850 1150 225 1937.5 1175 225 1850 1175 225 1937.5 1200 225 1850 1200 225 1937.5
  1225 225 1850 1225 225 1937.5 1250 225 1850 1250 225 1937.5 1275 225 1850 1275 225 1937.5 1300 225 1850 1300 225 1937.5 1325 225
  1850 1325 225 1937.5 1350 225 1850 1350 225 1937.5 1375 225 1850 1375 225 1937.5 1400 225 1850 1400 225 1937.5 1425 225 1850 1425
  225 1937.5 1450 225 1850 1450 225 1937.5 1475 225 1850 1475 225 1937.5 1500 225 1850 1500 225 1937.5 0 250 1850 0 250 1937.5 25
  250 1850 25 250 1937.5 50 250 1850 50 250 1937.5 75 250 1850 75 250 1937.5 100 250 1850 100 250 1937.5 125 250 1850 125 250 1937.5
  150 250 1850 150 250 1937.5 175 250 1850 175 250 1937.5 200 250 1850 200 250 1937.5 225 250 1850 225 250 1937.5 250 250 1850 250
  250 1937.5 275 250 1850 275 250 1937.5 300 250 1850 300 250 1937.5 325 250 1850 325 250 1937.5 350 250 1850 350 250 1937.5 375 250
  1850 375 250 1937.5 400 250 1850 400 250 1937.5 425 250 1850 425 250 1937.5 450 250 1850 450 250 1937.5 475 250 1850 475 250
  1937.5 500 250 1850 500 250 1937.5 525 250 1850 525 250 1937.5 550 250 1850 550 250 1937.5 575 250 1850 575 250 1937.5 600 250
  1850 600 250 1937.5 625 250 1850 625 250 1937.5 650 250 1850 650 250 1937.5 675 250 1850 675 250 1937.5 700 250 1850 700 250
  1937.5 725 250 1850 725 250 1937.5 750 250 1850 750 250 1937.5 775 250 1850 775 250 1937.5 800 250 1850 800 250 1937.5 825 250
  1850 825 250 1937.5 850 250 1850 850 250 1937.5 875 250 1850 875 250 1937.5 900 250 1850 900 250 1937.5 925 250 1850 925 250
  1937.5 950 250 1850 950 250 1937.5 975 250 1850 975 250 1937.5 1000 250 1850 1000 250 1937.5 1025 250 1850 1025 250 1937.5 1050
  250 1850 1050 250 1937.5 1075 250 1850 1075 250 1937.5 1100 250 1850 1100 250 1937.5 1125 250 1850 1125 250 1937.5 1150 250 1850
  1150 250 1937.5 1175 250 1850 1175 250 1937.5 1200 250 1850 1200 250 1937.5 1225 250 1850 1225 250 1937.5 1250 250 1850 1250 250
  1937.5 1275 250 1850 1275 250 1937.5 1300 250 1850 1300 250 1937.5 1325 250 1850 1325 250 1937.5 1350 250 1850 1350 250 1937.5
  1375 250 1850 1375 250 1937.5 1400 250 1850 1400 250 1937.5 1425 250 1850 1425 250 1937.5 1450 250 1850 1450 250 1937.5 1475 250
  1850 1475 250 1937.5 1500 250 1850 1500 250 1937.5 0 275 1850 0 275 1937.5 25 275 1850 25 275 1937.5 50 275 1850 50 275 1937.5 75
  275 1850 75 275 1937.5 100 275 1850 100 275 1937.5 125 275 1850 125 275 1937.5 150 275 1850 150 275 1937.5 175 275 1850 175 275
  1937.5 200 275 1850 200 275 1937.5 225 275 1850 225 275 1937.5 250 275 1850 250 275 1937.5 275 275 1850 275 275 1937.5 300 275
  1850 300 275 1937.5 325 275 1850 325 275 1937.5 350 275 1850 350 275 1937.5 375 275 1850 375 275 1937.5 400 275 1850 400 275
  1937.5 425 275 1850 425 275 1937.5 450 275 1850 450 275 1937.5 475 275 1850 475 275 1937.5 500 275 1850 500 275 1937.5 525 275
  1850 525 275 1937.5 550 275 1850 550 275 1937.5 575 275 1850 575 275 1937.5 600 275 1850 600 275 1937.5 625 275 1850 625 275
  1937.5 650 275 1850 650 275 1937.5 675 275 1850 675 275 1937.5 700 275 1850 700 275 1937.5 725 275 1850 725 275 1937.5 750 275
  1850 750 275 1937.5 775 275 1850 775 275 1937.5 800 275 1850 800 275 1937.5 825 275 1850 825 275 1937.5 850 275 1850 850 275
  1937.5 875 275 1850 875 275 1937.5 900 275 1850 900 275 1937.5 925 275 1850 925 275 1937.5 950 275 1850 950 275 1937.5 975 275
  1850 975 275 1937.5 1000 275 1850 1000 275 1937.5 1025 275 1850 1025 275 1937.5 1050 275 1850 1050 275 1937.5 1075 275 1850 1075
  275 1937.5 1100 275 1850 1100 275 1937.5 1125 275 1850 1125 275 1937.5 1150 275 1850 1150 275 1937.5 1175 275 1850 1175 275 1937.5
  1200 275 1850 1200 275 1937.5 1225 275 1850 1225 275 1937.5 1250 275 1850 1250 275 1937.5 1275 275 1850 1275 275 1937.5 1300 275
  1850 1300 275 1937.5 1325 275 1850 1325 275 1937.5 1350 275 1850 1350 275 1937.5 1375 275 1850 1375 275 1937.5 1400 275 1850 1400
  275 1937.5 1425 275 1850 1425 275 1937.5 1450 275 1850 1450 275 1937.5 1475 275 1850 1475 275 1937.5 1500 275 1850 1500 275 1937.5
  0 300 1850 0 300 1937.5 25 300 1850 25 300 1937.5 50 300 1850 50 300 1937.5 75 300 1850 75 300 1937.5 100 300 1850 100 300 1937.5
  125 300 1850 125 300 1937.5 150 300 1850 150 300 1937.5 175 300 1850 175 300 1937.5 200 300 1850 200 300 1937.5 225 300 1850 225
  300 1937.5 250 300 1850 250 300 1937.5 275 300 1850 275 300 1937.5 300 300 1850 300 300 1937.5 325 300 1850 325 300 1937.5 350 300
  1850 350 300 1937.5 375 300 1850 375 300 1937.5 400 300 1850 400 300 1937.5 425 300 1850 425 300 1937.5 450 300 1850 450 300
  1937.5 475 300 1850 475 300 1937.5 500 300 1850 500 300 1937.5 525 300 1850 525 300 1937.5 550 300 1850 550 300 1937.5 575 300
  1850 575 300 1937.5 600 300 1850 600 300 1937.5 625 300 1850 625 300 1937.5 650 300 1850 650 300 1937.5 675 300 1850 675 300
  1937.5 700 300 1850 700 300 1937.5 725 300 1850 725 300 1937.5 750 300 1850 750 300 1937.5 775 300 1850 775 300 1937.5 800 300
  1850 800 300 1937.5 825 300 1850 825 300 1937.5 850 300 1850 850 300 1937.5 875 300 1850 875 300 1937.5 900 300 1850 900 300
  1937.5 925 300 1850 925 300 1937.5 950 300 1850 950 300 1937.5 975 300 1850 975 300 1937.5 1000 300 1850 1000 300 1937.5 1025 300
  1850 1025 300 1937.5 1050 300 1850 1050 300 1937.5 1075 300 1850 1075 300 1937.5 1100 300 1850 1100 300 1937.5 1125 300 1850 1125
  300 1937.5 1150 300 1850 1150 300 1937.5 1175 300 1850 1175 300 1937.5 1200 300 1850 1200 300 1937.5 1225 300 1850 1225 300 1937.5
  1250 300 1850 1250 300 1937.5 1275 300 1850 1275 300 1937.5 1300 300 1850 1300 300 1937.5 1325 300 1850 1325 300 1937.5 1350 300
  1850 1350 300 1937.5 1375 300 1850 1375 300 1937.5 1400 300 1850 1400 300 1937.5 1425 300 1850 1425 300 1937.5 1450 300 1850 1450
  300 1937.5 1475 300 1850 1475 300 1937.5 1500 300 1850 1500 300 1937.5 0 325 1850 0 325 1937.5 25 325 1850 25 325 1937.5 50 325
  1850 50 325 1937.5 75 325 1850 75 325 1937.5 100 325 1850 100 325 1937.5 125 325 1850 125 325 1937.5 150 325 1850 150 325 1937.5
  175 325 1850 175 325 1937.5 200 325 1850 200 325 1937.5 225 325 1850 225 325 1937.5 250 325 1850 250 325 1937.5 275 325 1850 275
  325 1937.5 300 325 1850 300 325 1937.5 325 325 1850 325 325 1937.5 350 325 1850 350 325 1937.5 375 325 1850 375 325 1937.5 400 325
  1850 400 325 1937.5 425 325 1850 425 325 1937.5 450 325 1850 450 325 1937.5 475 325 1850 475 325 1937.5 500 325 1850 500 325
  1937.5 525 325 1850 525 325 1937.5 550 325 1850 550 325 1937.5 575 325 1850 575 325 1937.5 600 325 1850 600 325 1937.5 625 325
  1850 625 325 1937.5 650 325 1850 650 325 1937.5 675 325 1850 675 325 1937.5 700 325 1850 700 325 1937.5 725 325 1850 725 325
  1937.5 750 325 1850 750 325 1937.5 775 325 1850 775 325 1937.5 800 325 1850 800 325 1937.5 825 325 1850 825 325 1937.5 850 325
  1850 850 325 1937.5 875 325 1850 875 325 1937.5 900 325 1850 900 325 1937.5 925 325 1850 925 325 1937.5 950 325 1850 950 325
  1937.5 975 325 1850 975 325 1937.5 1000 325 1850 1000 325 1937.5 1025 325 1850 1025 325 1937.5 1050 325 1850 1050 325 1937.5 1075
  325 1850 1075 325 1937.5 1100 325 1850 1100 325 1937.5 1125 325 1850 1125 325 1937.5 1150 325 1850 1150 325 1937.5 1175 325 1850
  1175 325 1937.5 1200 325 1850 1200 325 1937.5 1225 325 1850 1225 325 1937.5 1250 325 1850 1250 325 1937.5 1275 325 1850 1275 325
  1937.5 1300 325 1850 1300 325 1937.5 1325 325 1850 1325 325 1937.5 1350 325 1850 1350 325 1937.5 1375 325 1850 1375 325 1937.5
  1400 325 1850 1400 325 1937.5 1425 325 1850 1425 325 1937.5 1450 325 1850 1450 325 1937.5 1475 325 1850 1475 325 1937.5 1500 325
  1850 1500 325 1937.5 0 350 1850 0 350 1937.5 25 350 1850 25 350 1937.5 50 350 1850 50 350 1937.5 75 350 1850 75 350 1937.5 100 350
  1850 100 350 1937.5 125 350 1850 125 350 1937.5 150 350 1850 150 350 1937.5 175 350 1850 175 350 1937.5 200 350 1850 200 350
  1937.5 225 350 1850 225 350 1937.5 250 350 1850 250 350 1937.5 275 350 1850 275 350 1937.5 300 350 1850 300 350 1937.5 325 350
  1850 325 350 1937.5 350 350 1850 350 350 1937.5 375 350 1850 375 350 1937.5 400 350 1850 400 350 1937.5 425 350 1850 425 350
  1937.5 450 350 1850 450 350 1937.5 475 350 1850 475 350 1937.5 500 350 1850 500 350 1937.5 525 350 1850 525 350 1937.5 550 350
  1850 550 350 1937.5 575 350 1850 575 350 1937.5 600 350 1850 600 350 1937.5 625 350 1850 625 350 1937.5 650 350 1850 650 350
  1937.5 675 350 1850 675 350 1937.5 700 350 1850 700 350 1937.5 725 350 1850 725 350 1937.5 750 350 1850 750 350 1937.5 775 350
  1850 775 350 1937.5 800 350 1850 800 350 1937.5 825 350 1850 825 350 1937.5 850 350 1850 850 350 1937.5 875 350 1850 875 350
  1937.5 900 350 1850 900 350 1937.5 925 350 1850 925 350 1937.5 950 350 1850 950 350 1937.5 975 350 1850 975 350 1937.5 1000 350
  1850 1000 350 1937.5 1025 350 1850 1025 350 1937.5 1050 350 1850 1050 350 1937.5 1075 350 1850 1075 350 1937.5 1100 350 1850 1100
  350 1937.5 1125 350 1850 1125 350 1937.5 1150 350 1850 1150 350 1937.5 1175 350 1850 1175 350 1937.5 1200 350 1850 1200 350 1937.5
  1225 350 1850 1225 350 1937.5 1250 350 1850 1250 350 1937.5 1275 350 1850 1275 350 1937.5 1300 350 1850 1300 350 1937.5 1325 350
  1850 1325 350 1937.5 1350 350 1850 1350 350 1937.5 1375 350 1850 1375 350 1937.5 1400 350 1850 1400 350 1937.5 1425 350 1850 1425
  350 1937.5 1450 350 1850 1450 350 1937.5 1475 350 1850 1475 350 1937.5 1500 350 1850 1500 350 1937.5 0 375 1850 0 375 1937.5 25
  375 1850 25 375 1937.5 50 375 1850 50 375 1937.5 75 375 1850 75 375 1937.5 100 375 1850 100 375 1937.5 125 375 1850 125 375 1937.5
  150 375 1850 150 375 1937.5 175 375 1850 175 375 1937.5 200 375 1850 200 375 1937.5 225 375 1850 225 375 1937.5 250 375 1850 250
  375 1937.5 275 375 1850 275 375 1937.5 300 375 1850 300 375 1937.5 325 375 1850 325 375 1937.5 350 375 1850 350 375 1937.5 375 375
  1850 375 375 1937.5 400 375 1850 400 375 1937.5 425 375 1850 425 375 1937.5 450 375 1850 450 375 1937.5 475 375 1850 475 375
  1937.5 500 375 1850 500 375 1937.5 525 375 1850 525 375 1937.5 550 375 1850 550 375 1937.5 575 375 1850 575 375 1937.5 600 375
  1850 600 375 1937.5 625 375 1850 625 375 1937.5 650 375 1850 650 375 1937.5 675 375 1850 675 375 1937.5 700 375 1850 700 375
  1937.5 725 375 1850 725 375 1937.5 750 375 1850 750 375 1937.5 775 375 1850 775 375 1937.5 800 375 1850 800 375 1937.5 825 375
  1850 825 375 1937.5 850 375 1850 850 375 1937.5 875 375 1850 875 375 1937.5 900 375 1850 900 375 1937.5 925 375 1850 925 375
  1937.5 950 375 1850 950 375 1937.5 975 375 1850 975 375 1937.5 1000 375 1850 1000 375 1937.5 1025 375 1850 1025 375 1937.5 1050
  375 1850 1050 375 1937.5 1075 375 1850 1075 375 1937.5 1100 375 1850 1100 375 1937.5 1125 375 1850 1125 375 1937.5 1150 375 1850
  1150 375 1937.5 1175 375 1850 1175 375 1937.5 1200 375 1850 1200 375 1937.5 1225 375 1850 1225 375 1937.5 1250 375 1850 1250 375
  1937.5 1275 375 1850 1275 375 1937.5 1300 375 1850 1300 375 1937.5 1325 375 1850 1325 375 1937.5 1350 375 1850 1350 375 1937.5
  1375 375 1850 1375 375 1937.5 1400 375 1850 1400 375 1937.5 1425 375 1850 1425 375 1937.5 1450 375 1850 1450 375 1937.5 1475 375
  1850 1475 375 1937.5 1500 375 1850 1500 375 1937.5 0 400 1850 0 400 1937.5 25 400 1850 25 400 1937.5 50 400 1850 50 400 1937.5 75
  400 1850 75 400 1937.5 100 400 1850 100 400 1937.5 125 400 1850 125 400 1937.5 150 400 1850 150 400 1937.5 175 400 1850 175 400
  1937.5 200 400 1850 200 400 1937.5 225 400 1850 225 400 1937.5 250 400 1850 250 400 1937.5 275 400 1850 275 400 1937.5 300 400
  1850 300 400 1937.5 325 400 1850 325 400 1937.5 350 400 1850 350 400 1937.5 375 400 1850 375 400 1937.5 400 400 1850 400 400
  1937.5 425 400 1850 425 400 1937.5 450 400 1850 450 400 1937.5 475 400 1850 475 400 1937.5 500 400 1850 500 400 1937.5 525 400
  1850 525 400 1937.5 550 400 1850 550 400 1937.5 575 400 1850 575 400 1937.5 600 400 1850 600 400 1937.5 625 400 1850 625 400
  1937.5 650 400 1850 650 400 1937.5 675 400 1850 675 400 1937.5 700 400 1850 700 400 1937.5 725 400 1850 725 400 1937.5 750 400
  1850 750 400 1937.5 775 400 1850 775 400 1937.5 800 400 1850 800 400 1937.5 825 400 1850 825 400 1937.5 850 400 1850 850 400
  1937.5 875 400 1850 875 400 1937.5 900 400 1850 900 400 1937.5 925 400 1850 925 400 1937.5 950 400 1850 950 400 1937.5 975 400
  1850 975 400 1937.5 1000 400 1850 1000 400 1937.5 1025 400 1850 1025 400 1937.5 1050 400 1850 1050 400 1937.5 1075 400 1850 1075
  400 1937.5 1100 400 1850 1100 400 1937.5 1125 400 1850 1125 400 1937.5 1150 400 1850 1150 400 1937.5 1175 400 1850 1175 400 1937.5
  1200 400 1850 1200 400 1937.5 1225 400 1850 1225 400 1937.5 1250 400 1850 1250 400 1937.5 1275 400 1850 1275 400 1937.5 1300 400
  1850 1300 400 1937.5 1325 400 1850 1325 400 1937.5 1350 400 1850 1350 400 1937.5 1375 400 1850 1375 400 1937.5 1400 400 1850 1400
  400 1937.5 1425 400 1850 1425 400 1937.5 1450 400 1850 1450 400 1937.5 1475 400 1850 1475 400 1937.5 1500 400 1850 1500 400 1937.5